PROCAR lm decomposed
# of k-points:  250         # of bands:   24         # of ions:    6

 k-point     1 :    0.00000000 0.00000000 0.00000000     weight = 0.00400000

band     1 # energy  -22.64252603 # occ.  2.00000000
 
ion      s     py     pz     px    dxy    dyz    dz2    dxz  x2-y2    tot
    1  0.126  0.005  0.000  0.001  0.000  0.000  0.000  0.000  0.000  0.133
    2  0.126  0.005  0.000  0.001  0.000  0.000  0.000  0.000  0.000  0.133
    3  0.126  0.005  0.000  0.001  0.000  0.000  0.000  0.000  0.000  0.133
    4  0.126  0.005  0.000  0.001  0.000  0.000  0.000  0.000  0.000  0.133
    5  0.065  0.001  0.000  0.000  0.000  0.000  0.000  0.000  0.000  0.067
    6  0.065  0.001  0.000  0.000  0.000  0.000  0.000  0.000  0.000  0.067
tot    0.635  0.024  0.000  0.005  0.000  0.000  0.000  0.000  0.000  0.664
 
band     2 # energy  -18.03747555 # occ.  2.00000000
 
ion      s     py     pz     px    dxy    dyz    dz2    dxz  x2-y2    tot
    1  0.011  0.034  0.000  0.042  0.000  0.000  0.000  0.000  0.000  0.088
    2  0.011  0.034  0.000  0.042  0.000  0.000  0.000  0.000  0.000  0.088
    3  0.011  0.034  0.000  0.042  0.000  0.000  0.000  0.000  0.000  0.088
    4  0.011  0.034  0.000  0.042  0.000  0.000  0.000  0.000  0.000  0.088
    5  0.177  0.008  0.000  0.000  0.000  0.000  0.000  0.000  0.000  0.184
    6  0.177  0.008  0.000  0.000  0.000  0.000  0.000  0.000  0.000  0.184
tot    0.397  0.153  0.000  0.170  0.000  0.000  0.000  0.000  0.000  0.720
 
band     3 # energy  -17.34745895 # occ.  2.00000000
 
ion      s     py     pz     px    dxy    dyz    dz2    dxz  x2-y2    tot
    1  0.085  0.016  0.000  0.003  0.000  0.000  0.000  0.000  0.000  0.103
    2  0.085  0.016  0.000  0.003  0.000  0.000  0.000  0.000  0.000  0.103
    3  0.085  0.016  0.000  0.003  0.000  0.000  0.000  0.000  0.000  0.103
    4  0.085  0.016  0.000  0.003  0.000  0.000  0.000  0.000  0.000  0.103
    5  0.122  0.033  0.000  0.000  0.000  0.000  0.000  0.000  0.000  0.155
    6  0.122  0.033  0.000  0.000  0.000  0.000  0.000  0.000  0.000  0.155
tot    0.584  0.127  0.000  0.011  0.000  0.000  0.000  0.000  0.000  0.722
 
band     4 # energy  -14.56087380 # occ.  2.00000000
 
ion      s     py     pz     px    dxy    dyz    dz2    dxz  x2-y2    tot
    1  0.115  0.002  0.000  0.020  0.000  0.000  0.000  0.000  0.000  0.136
    2  0.115  0.002  0.000  0.020  0.000  0.000  0.000  0.000  0.000  0.136
    3  0.115  0.002  0.000  0.020  0.000  0.000  0.000  0.000  0.000  0.136
    4  0.115  0.002  0.000  0.020  0.000  0.000  0.000  0.000  0.000  0.136
    5  0.000  0.000  0.000  0.091  0.000  0.000  0.000  0.000  0.000  0.091
    6  0.000  0.000  0.000  0.091  0.000  0.000  0.000  0.000  0.000  0.091
tot    0.459  0.006  0.000  0.260  0.000  0.000  0.000  0.000  0.000  0.726
 
band     5 # energy  -13.23301767 # occ.  2.00000000
 
ion      s     py     pz     px    dxy    dyz    dz2    dxz  x2-y2    tot
    1  0.000  0.008  0.000  0.078  0.000  0.000  0.000  0.000  0.000  0.087
    2  0.000  0.008  0.000  0.078  0.000  0.000  0.000  0.000  0.000  0.087
    3  0.000  0.008  0.000  0.078  0.000  0.000  0.000  0.000  0.000  0.087
    4  0.000  0.008  0.000  0.078  0.000  0.000  0.000  0.000  0.000  0.087
    5  0.005  0.142  0.000  0.000  0.000  0.000  0.000  0.000  0.000  0.148
    6  0.005  0.142  0.000  0.000  0.000  0.000  0.000  0.000  0.000  0.148
tot    0.012  0.317  0.000  0.314  0.000  0.000  0.000  0.000  0.000  0.642
 
band     6 # energy  -10.91419014 # occ.  2.00000000
 
ion      s     py     pz     px    dxy    dyz    dz2    dxz  x2-y2    tot
    1  0.034  0.001  0.000  0.121  0.000  0.000  0.000  0.000  0.000  0.156
    2  0.034  0.001  0.000  0.121  0.000  0.000  0.000  0.000  0.000  0.156
    3  0.034  0.001  0.000  0.121  0.000  0.000  0.000  0.000  0.000  0.156
    4  0.034  0.001  0.000  0.121  0.000  0.000  0.000  0.000  0.000  0.156
    5  0.045  0.021  0.000  0.000  0.000  0.000  0.000  0.000  0.000  0.066
    6  0.045  0.021  0.000  0.000  0.000  0.000  0.000  0.000  0.000  0.066
tot    0.225  0.047  0.000  0.486  0.000  0.000  0.000  0.000  0.000  0.757
 
band     7 # energy  -10.65285607 # occ.  2.00000000
 
ion      s     py     pz     px    dxy    dyz    dz2    dxz  x2-y2    tot
    1  0.076  0.025  0.000  0.022  0.000  0.000  0.000  0.000  0.000  0.123
    2  0.076  0.025  0.000  0.022  0.000  0.000  0.000  0.000  0.000  0.123
    3  0.076  0.025  0.000  0.022  0.000  0.000  0.000  0.000  0.000  0.123
    4  0.076  0.025  0.000  0.022  0.000  0.000  0.000  0.000  0.000  0.123
    5  0.000  0.000  0.000  0.145  0.000  0.000  0.000  0.000  0.000  0.145
    6  0.000  0.000  0.000  0.145  0.000  0.000  0.000  0.000  0.000  0.145
tot    0.302  0.099  0.000  0.378  0.000  0.000  0.000  0.000  0.000  0.780
 
band     8 # energy  -10.47359683 # occ.  2.00000000
 
ion      s     py     pz     px    dxy    dyz    dz2    dxz  x2-y2    tot
    1  0.000  0.000  0.078  0.000  0.000  0.000  0.000  0.000  0.000  0.078
    2  0.000  0.000  0.078  0.000  0.000  0.000  0.000  0.000  0.000  0.078
    3  0.000  0.000  0.078  0.000  0.000  0.000  0.000  0.000  0.000  0.078
    4  0.000  0.000  0.078  0.000  0.000  0.000  0.000  0.000  0.000  0.078
    5  0.000  0.000  0.064  0.000  0.000  0.000  0.000  0.000  0.000  0.064
    6  0.000  0.000  0.064  0.000  0.000  0.000  0.000  0.000  0.000  0.064
tot    0.000  0.000  0.439  0.000  0.000  0.000  0.000  0.000  0.000  0.439
 
band     9 # energy   -9.03775023 # occ.  2.00000000
 
ion      s     py     pz     px    dxy    dyz    dz2    dxz  x2-y2    tot
    1  0.013  0.122  0.000  0.000  0.000  0.000  0.000  0.000  0.000  0.136
    2  0.013  0.122  0.000  0.000  0.000  0.000  0.000  0.000  0.000  0.136
    3  0.013  0.122  0.000  0.000  0.000  0.000  0.000  0.000  0.000  0.136
    4  0.013  0.122  0.000  0.000  0.000  0.000  0.000  0.000  0.000  0.136
    5  0.000  0.000  0.000  0.092  0.000  0.000  0.000  0.000  0.000  0.092
    6  0.000  0.000  0.000  0.092  0.000  0.000  0.000  0.000  0.000  0.092
tot    0.053  0.489  0.000  0.185  0.000  0.000  0.000  0.000  0.000  0.726
 
band    10 # energy   -7.89453930 # occ.  2.00000000
 
ion      s     py     pz     px    dxy    dyz    dz2    dxz  x2-y2    tot
    1  0.005  0.102  0.000  0.004  0.000  0.000  0.000  0.000  0.000  0.112
    2  0.005  0.102  0.000  0.004  0.000  0.000  0.000  0.000  0.000  0.112
    3  0.005  0.102  0.000  0.004  0.000  0.000  0.000  0.000  0.000  0.112
    4  0.005  0.102  0.000  0.004  0.000  0.000  0.000  0.000  0.000  0.112
    5  0.015  0.108  0.000  0.000  0.000  0.000  0.000  0.000  0.000  0.123
    6  0.015  0.108  0.000  0.000  0.000  0.000  0.000  0.000  0.000  0.123
tot    0.052  0.626  0.000  0.017  0.000  0.000  0.000  0.000  0.000  0.695
 
band    11 # energy   -5.46176663 # occ.  2.00000000
 
ion      s     py     pz     px    dxy    dyz    dz2    dxz  x2-y2    tot
    1  0.000  0.000  0.083  0.000  0.000  0.000  0.000  0.000  0.000  0.083
    2  0.000  0.000  0.083  0.000  0.000  0.000  0.000  0.000  0.000  0.083
    3  0.000  0.000  0.083  0.000  0.000  0.000  0.000  0.000  0.000  0.083
    4  0.000  0.000  0.083  0.000  0.000  0.000  0.000  0.000  0.000  0.083
    5  0.000  0.000  0.089  0.000  0.000  0.000  0.000  0.000  0.000  0.089
    6  0.000  0.000  0.089  0.000  0.000  0.000  0.000  0.000  0.000  0.089
tot    0.000  0.000  0.508  0.000  0.000  0.000  0.000  0.000  0.000  0.508
 
band    12 # energy   -3.61152845 # occ.  2.00000000
 
ion      s     py     pz     px    dxy    dyz    dz2    dxz  x2-y2    tot
    1  0.000  0.000  0.034  0.000  0.000  0.000  0.000  0.000  0.000  0.034
    2  0.000  0.000  0.034  0.000  0.000  0.000  0.000  0.000  0.000  0.034
    3  0.000  0.000  0.034  0.000  0.000  0.000  0.000  0.000  0.000  0.034
    4  0.000  0.000  0.034  0.000  0.000  0.000  0.000  0.000  0.000  0.034
    5  0.000  0.000  0.168  0.000  0.000  0.000  0.000  0.000  0.000  0.168
    6  0.000  0.000  0.168  0.000  0.000  0.000  0.000  0.000  0.000  0.168
tot    0.000  0.000  0.472  0.000  0.000  0.000  0.000  0.000  0.000  0.472
 
band    13 # energy   -2.39457950 # occ.  0.00000000
 
ion      s     py     pz     px    dxy    dyz    dz2    dxz  x2-y2    tot
    1  0.000  0.000  0.135  0.000  0.000  0.000  0.000  0.000  0.000  0.135
    2  0.000  0.000  0.135  0.000  0.000  0.000  0.000  0.000  0.000  0.135
    3  0.000  0.000  0.135  0.000  0.000  0.000  0.000  0.000  0.000  0.135
    4  0.000  0.000  0.135  0.000  0.000  0.000  0.000  0.000  0.000  0.135
    5  0.000  0.000  0.000  0.000  0.000  0.000  0.000  0.000  0.000  0.000
    6  0.000  0.000  0.000  0.000  0.000  0.000  0.000  0.000  0.000  0.000
tot    0.000  0.000  0.540  0.000  0.000  0.000  0.000  0.000  0.000  0.540
 
band    14 # energy    0.43183381 # occ.  0.00000000
 
ion      s     py     pz     px    dxy    dyz    dz2    dxz  x2-y2    tot
    1  0.003  0.000  0.000  0.000  0.000  0.000  0.000  0.000  0.000  0.003
    2  0.003  0.000  0.000  0.000  0.000  0.000  0.000  0.000  0.000  0.003
    3  0.003  0.000  0.000  0.000  0.000  0.000  0.000  0.000  0.000  0.003
    4  0.003  0.000  0.000  0.000  0.000  0.000  0.000  0.000  0.000  0.003
    5  0.006  0.001  0.000  0.000  0.000  0.000  0.000  0.000  0.000  0.006
    6  0.006  0.001  0.000  0.000  0.000  0.000  0.000  0.000  0.000  0.006
tot    0.022  0.002  0.000  0.001  0.000  0.000  0.000  0.000  0.000  0.025
 
band    15 # energy    1.16168443 # occ.  0.00000000
 
ion      s     py     pz     px    dxy    dyz    dz2    dxz  x2-y2    tot
    1  0.000  0.000  0.003  0.000  0.000  0.000  0.000  0.000  0.000  0.003
    2  0.000  0.000  0.003  0.000  0.000  0.000  0.000  0.000  0.000  0.003
    3  0.000  0.000  0.003  0.000  0.000  0.000  0.000  0.000  0.000  0.003
    4  0.000  0.000  0.003  0.000  0.000  0.000  0.000  0.000  0.000  0.003
    5  0.000  0.000  0.005  0.000  0.000  0.000  0.000  0.000  0.000  0.005
    6  0.000  0.000  0.005  0.000  0.000  0.000  0.000  0.000  0.000  0.005
tot    0.000  0.000  0.021  0.000  0.000  0.000  0.000  0.000  0.000  0.021
 
band    16 # energy    1.42349710 # occ.  0.00000000
 
ion      s     py     pz     px    dxy    dyz    dz2    dxz  x2-y2    tot
    1  0.000  0.000  0.000  0.000  0.000  0.000  0.000  0.000  0.000  0.000
    2  0.000  0.000  0.000  0.000  0.000  0.000  0.000  0.000  0.000  0.000
    3  0.000  0.000  0.000  0.000  0.000  0.000  0.000  0.000  0.000  0.000
    4  0.000  0.000  0.000  0.000  0.000  0.000  0.000  0.000  0.000  0.000
    5  0.001  0.000  0.000  0.000  0.000  0.000  0.000  0.000  0.000  0.001
    6  0.001  0.000  0.000  0.000  0.000  0.000  0.000  0.000  0.000  0.001
tot    0.003  0.000  0.000  0.000  0.000  0.000  0.000  0.000  0.000  0.003
 
band    17 # energy    2.34671784 # occ.  0.00000000
 
ion      s     py     pz     px    dxy    dyz    dz2    dxz  x2-y2    tot
    1  0.000  0.000  0.002  0.000  0.000  0.000  0.000  0.000  0.000  0.002
    2  0.000  0.000  0.002  0.000  0.000  0.000  0.000  0.000  0.000  0.002
    3  0.000  0.000  0.002  0.000  0.000  0.000  0.000  0.000  0.000  0.002
    4  0.000  0.000  0.002  0.000  0.000  0.000  0.000  0.000  0.000  0.002
    5  0.000  0.000  0.004  0.000  0.000  0.000  0.000  0.000  0.000  0.004
    6  0.000  0.000  0.004  0.000  0.000  0.000  0.000  0.000  0.000  0.004
tot    0.000  0.000  0.018  0.000  0.000  0.000  0.000  0.000  0.000  0.018
 
band    18 # energy    2.59866239 # occ.  0.00000000
 
ion      s     py     pz     px    dxy    dyz    dz2    dxz  x2-y2    tot
    1  0.000  0.000  0.151  0.000  0.000  0.000  0.000  0.000  0.000  0.151
    2  0.000  0.000  0.151  0.000  0.000  0.000  0.000  0.000  0.000  0.151
    3  0.000  0.000  0.151  0.000  0.000  0.000  0.000  0.000  0.000  0.151
    4  0.000  0.000  0.151  0.000  0.000  0.000  0.000  0.000  0.000  0.151
    5  0.000  0.000  0.000  0.000  0.000  0.000  0.000  0.000  0.000  0.000
    6  0.000  0.000  0.000  0.000  0.000  0.000  0.000  0.000  0.000  0.000
tot    0.000  0.000  0.605  0.000  0.000  0.000  0.000  0.000  0.000  0.605
 
band    19 # energy    2.81767591 # occ.  0.00000000
 
ion      s     py     pz     px    dxy    dyz    dz2    dxz  x2-y2    tot
    1  0.001  0.000  0.000  0.000  0.000  0.000  0.000  0.000  0.000  0.001
    2  0.001  0.000  0.000  0.000  0.000  0.000  0.000  0.000  0.000  0.001
    3  0.001  0.000  0.000  0.000  0.000  0.000  0.000  0.000  0.000  0.001
    4  0.001  0.000  0.000  0.000  0.000  0.000  0.000  0.000  0.000  0.001
    5  0.003  0.001  0.000  0.000  0.000  0.000  0.000  0.000  0.000  0.004
    6  0.003  0.001  0.000  0.000  0.000  0.000  0.000  0.000  0.000  0.004
tot    0.010  0.002  0.000  0.001  0.000  0.000  0.000  0.000  0.000  0.013
 
band    20 # energy    3.62154056 # occ.  0.00000000
 
ion      s     py     pz     px    dxy    dyz    dz2    dxz  x2-y2    tot
    1  0.000  0.000  0.052  0.000  0.000  0.000  0.000  0.000  0.000  0.052
    2  0.000  0.000  0.052  0.000  0.000  0.000  0.000  0.000  0.000  0.052
    3  0.000  0.000  0.052  0.000  0.000  0.000  0.000  0.000  0.000  0.052
    4  0.000  0.000  0.052  0.000  0.000  0.000  0.000  0.000  0.000  0.052
    5  0.000  0.000  0.197  0.000  0.000  0.000  0.000  0.000  0.000  0.197
    6  0.000  0.000  0.197  0.000  0.000  0.000  0.000  0.000  0.000  0.197
tot    0.000  0.000  0.604  0.000  0.000  0.000  0.000  0.000  0.000  0.604
 
band    21 # energy    4.45134064 # occ.  0.00000000
 
ion      s     py     pz     px    dxy    dyz    dz2    dxz  x2-y2    tot
    1  0.000  0.000  0.003  0.000  0.000  0.000  0.000  0.000  0.000  0.003
    2  0.000  0.000  0.003  0.000  0.000  0.000  0.000  0.000  0.000  0.003
    3  0.000  0.000  0.003  0.000  0.000  0.000  0.000  0.000  0.000  0.003
    4  0.000  0.000  0.003  0.000  0.000  0.000  0.000  0.000  0.000  0.003
    5  0.000  0.000  0.006  0.000  0.000  0.000  0.000  0.000  0.000  0.006
    6  0.000  0.000  0.006  0.000  0.000  0.000  0.000  0.000  0.000  0.006
tot    0.000  0.000  0.026  0.000  0.000  0.000  0.000  0.000  0.000  0.026
 
band    22 # energy    4.98040873 # occ.  0.00000000
 
ion      s     py     pz     px    dxy    dyz    dz2    dxz  x2-y2    tot
    1  0.024  0.072  0.000  0.000  0.000  0.000  0.000  0.000  0.000  0.097
    2  0.024  0.072  0.000  0.000  0.000  0.000  0.000  0.000  0.000  0.097
    3  0.024  0.072  0.000  0.000  0.000  0.000  0.000  0.000  0.000  0.097
    4  0.024  0.072  0.000  0.000  0.000  0.000  0.000  0.000  0.000  0.097
    5  0.033  0.054  0.000  0.000  0.000  0.000  0.000  0.000  0.000  0.087
    6  0.033  0.054  0.000  0.000  0.000  0.000  0.000  0.000  0.000  0.087
tot    0.165  0.396  0.000  0.001  0.000  0.000  0.000  0.000  0.000  0.562
 
band    23 # energy    5.01435993 # occ.  0.00000000
 
ion      s     py     pz     px    dxy    dyz    dz2    dxz  x2-y2    tot
    1  0.001  0.000  0.000  0.003  0.000  0.000  0.000  0.000  0.000  0.004
    2  0.001  0.000  0.000  0.003  0.000  0.000  0.000  0.000  0.000  0.004
    3  0.001  0.000  0.000  0.003  0.000  0.000  0.000  0.000  0.000  0.004
    4  0.001  0.000  0.000  0.003  0.000  0.000  0.000  0.000  0.000  0.004
    5  0.015  0.009  0.000  0.000  0.000  0.000  0.000  0.000  0.000  0.024
    6  0.015  0.009  0.000  0.000  0.000  0.000  0.000  0.000  0.000  0.024
tot    0.032  0.019  0.000  0.012  0.000  0.000  0.000  0.000  0.000  0.063
 
band    24 # energy    6.03408675 # occ.  0.00000000
 
ion      s     py     pz     px    dxy    dyz    dz2    dxz  x2-y2    tot
    1  0.003  0.001  0.000  0.019  0.000  0.000  0.000  0.000  0.000  0.023
    2  0.003  0.001  0.000  0.019  0.000  0.000  0.000  0.000  0.000  0.023
    3  0.003  0.001  0.000  0.019  0.000  0.000  0.000  0.000  0.000  0.023
    4  0.003  0.001  0.000  0.019  0.000  0.000  0.000  0.000  0.000  0.023
    5  0.040  0.049  0.000  0.000  0.000  0.000  0.000  0.000  0.000  0.089
    6  0.040  0.049  0.000  0.000  0.000  0.000  0.000  0.000  0.000  0.089
tot    0.090  0.101  0.000  0.078  0.000  0.000  0.000  0.000  0.000  0.269
 

 k-point     2 :    0.01020408 0.00000000 0.00000000     weight = 0.00400000

band     1 # energy  -22.64180379 # occ.  2.00000000
 
ion      s     py     pz     px    dxy    dyz    dz2    dxz  x2-y2    tot
    1  0.126  0.005  0.000  0.001  0.000  0.000  0.000  0.000  0.000  0.133
    2  0.126  0.005  0.000  0.001  0.000  0.000  0.000  0.000  0.000  0.133
    3  0.126  0.005  0.000  0.001  0.000  0.000  0.000  0.000  0.000  0.133
    4  0.126  0.005  0.000  0.001  0.000  0.000  0.000  0.000  0.000  0.133
    5  0.065  0.001  0.000  0.000  0.000  0.000  0.000  0.000  0.000  0.067
    6  0.065  0.001  0.000  0.000  0.000  0.000  0.000  0.000  0.000  0.067
tot    0.635  0.024  0.000  0.005  0.000  0.000  0.000  0.000  0.000  0.664
 
band     2 # energy  -18.03942796 # occ.  2.00000000
 
ion      s     py     pz     px    dxy    dyz    dz2    dxz  x2-y2    tot
    1  0.011  0.034  0.000  0.043  0.000  0.000  0.000  0.000  0.000  0.088
    2  0.011  0.034  0.000  0.043  0.000  0.000  0.000  0.000  0.000  0.088
    3  0.011  0.034  0.000  0.043  0.000  0.000  0.000  0.000  0.000  0.088
    4  0.011  0.034  0.000  0.043  0.000  0.000  0.000  0.000  0.000  0.088
    5  0.176  0.008  0.000  0.000  0.000  0.000  0.000  0.000  0.000  0.184
    6  0.176  0.008  0.000  0.000  0.000  0.000  0.000  0.000  0.000  0.184
tot    0.397  0.153  0.000  0.170  0.000  0.000  0.000  0.000  0.000  0.720
 
band     3 # energy  -17.34683506 # occ.  2.00000000
 
ion      s     py     pz     px    dxy    dyz    dz2    dxz  x2-y2    tot
    1  0.085  0.016  0.000  0.003  0.000  0.000  0.000  0.000  0.000  0.103
    2  0.085  0.016  0.000  0.003  0.000  0.000  0.000  0.000  0.000  0.103
    3  0.085  0.016  0.000  0.003  0.000  0.000  0.000  0.000  0.000  0.103
    4  0.085  0.016  0.000  0.003  0.000  0.000  0.000  0.000  0.000  0.103
    5  0.122  0.033  0.000  0.000  0.000  0.000  0.000  0.000  0.000  0.155
    6  0.122  0.033  0.000  0.000  0.000  0.000  0.000  0.000  0.000  0.155
tot    0.584  0.127  0.000  0.011  0.000  0.000  0.000  0.000  0.000  0.722
 
band     4 # energy  -14.56416180 # occ.  2.00000000
 
ion      s     py     pz     px    dxy    dyz    dz2    dxz  x2-y2    tot
    1  0.114  0.002  0.000  0.020  0.000  0.000  0.000  0.000  0.000  0.136
    2  0.114  0.002  0.000  0.020  0.000  0.000  0.000  0.000  0.000  0.136
    3  0.114  0.002  0.000  0.020  0.000  0.000  0.000  0.000  0.000  0.136
    4  0.114  0.002  0.000  0.020  0.000  0.000  0.000  0.000  0.000  0.136
    5  0.000  0.001  0.000  0.090  0.000  0.000  0.000  0.000  0.000  0.091
    6  0.000  0.001  0.000  0.090  0.000  0.000  0.000  0.000  0.000  0.091
tot    0.457  0.008  0.000  0.260  0.000  0.000  0.000  0.000  0.000  0.725
 
band     5 # energy  -13.22745782 # occ.  2.00000000
 
ion      s     py     pz     px    dxy    dyz    dz2    dxz  x2-y2    tot
    1  0.001  0.008  0.000  0.078  0.000  0.000  0.000  0.000  0.000  0.087
    2  0.001  0.008  0.000  0.078  0.000  0.000  0.000  0.000  0.000  0.087
    3  0.001  0.008  0.000  0.078  0.000  0.000  0.000  0.000  0.000  0.087
    4  0.001  0.008  0.000  0.078  0.000  0.000  0.000  0.000  0.000  0.087
    5  0.005  0.142  0.000  0.001  0.000  0.000  0.000  0.000  0.000  0.148
    6  0.005  0.142  0.000  0.001  0.000  0.000  0.000  0.000  0.000  0.148
tot    0.013  0.315  0.000  0.315  0.000  0.000  0.000  0.000  0.000  0.643
 
band     6 # energy  -10.95441617 # occ.  2.00000000
 
ion      s     py     pz     px    dxy    dyz    dz2    dxz  x2-y2    tot
    1  0.040  0.004  0.000  0.109  0.000  0.000  0.000  0.000  0.000  0.152
    2  0.040  0.004  0.000  0.109  0.000  0.000  0.000  0.000  0.000  0.152
    3  0.040  0.004  0.000  0.109  0.000  0.000  0.000  0.000  0.000  0.152
    4  0.040  0.004  0.000  0.109  0.000  0.000  0.000  0.000  0.000  0.152
    5  0.040  0.018  0.000  0.016  0.000  0.000  0.000  0.000  0.000  0.075
    6  0.040  0.018  0.000  0.016  0.000  0.000  0.000  0.000  0.000  0.075
tot    0.238  0.054  0.000  0.467  0.000  0.000  0.000  0.000  0.000  0.759
 
band     7 # energy  -10.61240937 # occ.  2.00000000
 
ion      s     py     pz     px    dxy    dyz    dz2    dxz  x2-y2    tot
    1  0.070  0.022  0.000  0.035  0.000  0.000  0.000  0.000  0.000  0.127
    2  0.070  0.022  0.000  0.035  0.000  0.000  0.000  0.000  0.000  0.127
    3  0.070  0.022  0.000  0.035  0.000  0.000  0.000  0.000  0.000  0.127
    4  0.070  0.022  0.000  0.035  0.000  0.000  0.000  0.000  0.000  0.127
    5  0.005  0.002  0.000  0.128  0.000  0.000  0.000  0.000  0.000  0.136
    6  0.005  0.002  0.000  0.128  0.000  0.000  0.000  0.000  0.000  0.136
tot    0.289  0.092  0.000  0.396  0.000  0.000  0.000  0.000  0.000  0.778
 
band     8 # energy  -10.47268636 # occ.  2.00000000
 
ion      s     py     pz     px    dxy    dyz    dz2    dxz  x2-y2    tot
    1  0.000  0.000  0.078  0.000  0.000  0.000  0.000  0.000  0.000  0.078
    2  0.000  0.000  0.078  0.000  0.000  0.000  0.000  0.000  0.000  0.078
    3  0.000  0.000  0.078  0.000  0.000  0.000  0.000  0.000  0.000  0.078
    4  0.000  0.000  0.078  0.000  0.000  0.000  0.000  0.000  0.000  0.078
    5  0.000  0.000  0.064  0.000  0.000  0.000  0.000  0.000  0.000  0.064
    6  0.000  0.000  0.064  0.000  0.000  0.000  0.000  0.000  0.000  0.064
tot    0.000  0.000  0.439  0.000  0.000  0.000  0.000  0.000  0.000  0.439
 
band     9 # energy   -9.04310059 # occ.  2.00000000
 
ion      s     py     pz     px    dxy    dyz    dz2    dxz  x2-y2    tot
    1  0.013  0.122  0.000  0.000  0.000  0.000  0.000  0.000  0.000  0.136
    2  0.013  0.122  0.000  0.000  0.000  0.000  0.000  0.000  0.000  0.136
    3  0.013  0.122  0.000  0.000  0.000  0.000  0.000  0.000  0.000  0.136
    4  0.013  0.122  0.000  0.000  0.000  0.000  0.000  0.000  0.000  0.136
    5  0.000  0.000  0.000  0.091  0.000  0.000  0.000  0.000  0.000  0.092
    6  0.000  0.000  0.000  0.091  0.000  0.000  0.000  0.000  0.000  0.092
tot    0.053  0.489  0.000  0.184  0.000  0.000  0.000  0.000  0.000  0.726
 
band    10 # energy   -7.88859598 # occ.  2.00000000
 
ion      s     py     pz     px    dxy    dyz    dz2    dxz  x2-y2    tot
    1  0.005  0.103  0.000  0.004  0.000  0.000  0.000  0.000  0.000  0.112
    2  0.005  0.103  0.000  0.004  0.000  0.000  0.000  0.000  0.000  0.112
    3  0.005  0.103  0.000  0.004  0.000  0.000  0.000  0.000  0.000  0.112
    4  0.005  0.103  0.000  0.004  0.000  0.000  0.000  0.000  0.000  0.112
    5  0.015  0.108  0.000  0.001  0.000  0.000  0.000  0.000  0.000  0.123
    6  0.015  0.108  0.000  0.001  0.000  0.000  0.000  0.000  0.000  0.123
tot    0.052  0.626  0.000  0.018  0.000  0.000  0.000  0.000  0.000  0.696
 
band    11 # energy   -5.46085822 # occ.  2.00000000
 
ion      s     py     pz     px    dxy    dyz    dz2    dxz  x2-y2    tot
    1  0.000  0.000  0.083  0.000  0.000  0.000  0.000  0.000  0.000  0.083
    2  0.000  0.000  0.083  0.000  0.000  0.000  0.000  0.000  0.000  0.083
    3  0.000  0.000  0.083  0.000  0.000  0.000  0.000  0.000  0.000  0.083
    4  0.000  0.000  0.083  0.000  0.000  0.000  0.000  0.000  0.000  0.083
    5  0.000  0.000  0.089  0.000  0.000  0.000  0.000  0.000  0.000  0.089
    6  0.000  0.000  0.089  0.000  0.000  0.000  0.000  0.000  0.000  0.089
tot    0.000  0.000  0.508  0.000  0.000  0.000  0.000  0.000  0.000  0.508
 
band    12 # energy   -3.62081650 # occ.  2.00000000
 
ion      s     py     pz     px    dxy    dyz    dz2    dxz  x2-y2    tot
    1  0.000  0.000  0.035  0.000  0.000  0.000  0.000  0.000  0.000  0.035
    2  0.000  0.000  0.035  0.000  0.000  0.000  0.000  0.000  0.000  0.035
    3  0.000  0.000  0.035  0.000  0.000  0.000  0.000  0.000  0.000  0.035
    4  0.000  0.000  0.035  0.000  0.000  0.000  0.000  0.000  0.000  0.035
    5  0.000  0.000  0.166  0.000  0.000  0.000  0.000  0.000  0.000  0.166
    6  0.000  0.000  0.166  0.000  0.000  0.000  0.000  0.000  0.000  0.166
tot    0.000  0.000  0.473  0.000  0.000  0.000  0.000  0.000  0.000  0.473
 
band    13 # energy   -2.38681628 # occ.  0.00000000
 
ion      s     py     pz     px    dxy    dyz    dz2    dxz  x2-y2    tot
    1  0.000  0.000  0.134  0.000  0.000  0.000  0.000  0.000  0.000  0.134
    2  0.000  0.000  0.134  0.000  0.000  0.000  0.000  0.000  0.000  0.134
    3  0.000  0.000  0.134  0.000  0.000  0.000  0.000  0.000  0.000  0.134
    4  0.000  0.000  0.134  0.000  0.000  0.000  0.000  0.000  0.000  0.134
    5  0.000  0.000  0.001  0.000  0.000  0.000  0.000  0.000  0.000  0.001
    6  0.000  0.000  0.001  0.000  0.000  0.000  0.000  0.000  0.000  0.001
tot    0.000  0.000  0.540  0.000  0.000  0.000  0.000  0.000  0.000  0.540
 
band    14 # energy    0.43289527 # occ.  0.00000000
 
ion      s     py     pz     px    dxy    dyz    dz2    dxz  x2-y2    tot
    1  0.003  0.000  0.000  0.000  0.000  0.000  0.000  0.000  0.000  0.003
    2  0.003  0.000  0.000  0.000  0.000  0.000  0.000  0.000  0.000  0.003
    3  0.003  0.000  0.000  0.000  0.000  0.000  0.000  0.000  0.000  0.003
    4  0.003  0.000  0.000  0.000  0.000  0.000  0.000  0.000  0.000  0.003
    5  0.006  0.001  0.000  0.000  0.000  0.000  0.000  0.000  0.000  0.006
    6  0.006  0.001  0.000  0.000  0.000  0.000  0.000  0.000  0.000  0.006
tot    0.022  0.002  0.000  0.001  0.000  0.000  0.000  0.000  0.000  0.025
 
band    15 # energy    1.16277117 # occ.  0.00000000
 
ion      s     py     pz     px    dxy    dyz    dz2    dxz  x2-y2    tot
    1  0.000  0.000  0.003  0.000  0.000  0.000  0.000  0.000  0.000  0.003
    2  0.000  0.000  0.003  0.000  0.000  0.000  0.000  0.000  0.000  0.003
    3  0.000  0.000  0.003  0.000  0.000  0.000  0.000  0.000  0.000  0.003
    4  0.000  0.000  0.003  0.000  0.000  0.000  0.000  0.000  0.000  0.003
    5  0.000  0.000  0.005  0.000  0.000  0.000  0.000  0.000  0.000  0.005
    6  0.000  0.000  0.005  0.000  0.000  0.000  0.000  0.000  0.000  0.005
tot    0.000  0.000  0.021  0.000  0.000  0.000  0.000  0.000  0.000  0.021
 
band    16 # energy    1.42460473 # occ.  0.00000000
 
ion      s     py     pz     px    dxy    dyz    dz2    dxz  x2-y2    tot
    1  0.000  0.000  0.000  0.000  0.000  0.000  0.000  0.000  0.000  0.000
    2  0.000  0.000  0.000  0.000  0.000  0.000  0.000  0.000  0.000  0.000
    3  0.000  0.000  0.000  0.000  0.000  0.000  0.000  0.000  0.000  0.000
    4  0.000  0.000  0.000  0.000  0.000  0.000  0.000  0.000  0.000  0.000
    5  0.001  0.000  0.000  0.000  0.000  0.000  0.000  0.000  0.000  0.001
    6  0.001  0.000  0.000  0.000  0.000  0.000  0.000  0.000  0.000  0.001
tot    0.003  0.000  0.000  0.000  0.000  0.000  0.000  0.000  0.000  0.003
 
band    17 # energy    2.34780330 # occ.  0.00000000
 
ion      s     py     pz     px    dxy    dyz    dz2    dxz  x2-y2    tot
    1  0.000  0.000  0.002  0.000  0.000  0.000  0.000  0.000  0.000  0.002
    2  0.000  0.000  0.002  0.000  0.000  0.000  0.000  0.000  0.000  0.002
    3  0.000  0.000  0.002  0.000  0.000  0.000  0.000  0.000  0.000  0.002
    4  0.000  0.000  0.002  0.000  0.000  0.000  0.000  0.000  0.000  0.002
    5  0.000  0.000  0.004  0.000  0.000  0.000  0.000  0.000  0.000  0.004
    6  0.000  0.000  0.004  0.000  0.000  0.000  0.000  0.000  0.000  0.004
tot    0.000  0.000  0.018  0.000  0.000  0.000  0.000  0.000  0.000  0.018
 
band    18 # energy    2.57697733 # occ.  0.00000000
 
ion      s     py     pz     px    dxy    dyz    dz2    dxz  x2-y2    tot
    1  0.000  0.000  0.149  0.000  0.000  0.000  0.000  0.000  0.000  0.149
    2  0.000  0.000  0.149  0.000  0.000  0.000  0.000  0.000  0.000  0.149
    3  0.000  0.000  0.149  0.000  0.000  0.000  0.000  0.000  0.000  0.149
    4  0.000  0.000  0.149  0.000  0.000  0.000  0.000  0.000  0.000  0.149
    5  0.000  0.000  0.004  0.000  0.000  0.000  0.000  0.000  0.000  0.004
    6  0.000  0.000  0.004  0.000  0.000  0.000  0.000  0.000  0.000  0.004
tot    0.000  0.000  0.604  0.000  0.000  0.000  0.000  0.000  0.000  0.604
 
band    19 # energy    2.81875321 # occ.  0.00000000
 
ion      s     py     pz     px    dxy    dyz    dz2    dxz  x2-y2    tot
    1  0.001  0.000  0.000  0.000  0.000  0.000  0.000  0.000  0.000  0.001
    2  0.001  0.000  0.000  0.000  0.000  0.000  0.000  0.000  0.000  0.001
    3  0.001  0.000  0.000  0.000  0.000  0.000  0.000  0.000  0.000  0.001
    4  0.001  0.000  0.000  0.000  0.000  0.000  0.000  0.000  0.000  0.001
    5  0.003  0.001  0.000  0.000  0.000  0.000  0.000  0.000  0.000  0.004
    6  0.003  0.001  0.000  0.000  0.000  0.000  0.000  0.000  0.000  0.004
tot    0.010  0.002  0.000  0.001  0.000  0.000  0.000  0.000  0.000  0.013
 
band    20 # energy    3.64172293 # occ.  0.00000000
 
ion      s     py     pz     px    dxy    dyz    dz2    dxz  x2-y2    tot
    1  0.000  0.000  0.054  0.000  0.000  0.000  0.000  0.000  0.000  0.054
    2  0.000  0.000  0.054  0.000  0.000  0.000  0.000  0.000  0.000  0.054
    3  0.000  0.000  0.054  0.000  0.000  0.000  0.000  0.000  0.000  0.054
    4  0.000  0.000  0.054  0.000  0.000  0.000  0.000  0.000  0.000  0.054
    5  0.000  0.000  0.193  0.000  0.000  0.000  0.000  0.000  0.000  0.193
    6  0.000  0.000  0.193  0.000  0.000  0.000  0.000  0.000  0.000  0.193
tot    0.000  0.000  0.604  0.000  0.000  0.000  0.000  0.000  0.000  0.604
 
band    21 # energy    4.45239669 # occ.  0.00000000
 
ion      s     py     pz     px    dxy    dyz    dz2    dxz  x2-y2    tot
    1  0.000  0.000  0.003  0.000  0.000  0.000  0.000  0.000  0.000  0.003
    2  0.000  0.000  0.003  0.000  0.000  0.000  0.000  0.000  0.000  0.003
    3  0.000  0.000  0.003  0.000  0.000  0.000  0.000  0.000  0.000  0.003
    4  0.000  0.000  0.003  0.000  0.000  0.000  0.000  0.000  0.000  0.003
    5  0.000  0.000  0.006  0.000  0.000  0.000  0.000  0.000  0.000  0.006